HEADER
"PSFversion" "1.00"
"design" "(\"\" \"netlist\" \"schematic\" \"\")"
"simulator" "spectre"
"temperature" "0.0"
"host" ""
"date" "May 31 10:05:37 2024"
"title" ""
"analysisList" "()"
END
